<VTKFile type="UnstructuredGrid" version="1.0" byte_order="LittleEndian" header_type="UInt64">
  <UnstructuredGrid>
    <Piece NumberOfPoints="800" NumberOfCells="1596">
      <PointData>
      </PointData>
      <CellData>
        <DataArray type="Int32" Name="BC_num" format="ascii" RangeMin="1" RangeMax="6">
          2 1 2 2 2 1
          2 1 2 1 1 1
          1 1 2 5 1 1
          2 1 5 1 2 2
          2 1 2 1 1 1
          2 2 2 1 1 1
          2 1 1 1 2 2
          1 1 1 1 2 1
          2 2 1 1 1 4
          1 1 1 1 1 2
          1 1 2 1 1 1
          1 2 2 2 1 1
          1 1 4 4 1 4
          2 2 2 6 2 6
          1 1 1 1 1 2
          2 1 1 2 1 1
          2 2 1 2 1 2
          1 2 1 1 2 1
          2 1 2 2 2 1
          2 1 1 2 1 3
          2 2 4 1 2 4
          3 2 1 1 2 1
          1 1 1 5 2 2
          1 1 1 2 1 1
          1 3 2 2 3 2
          1 1 2 2 1 4
          2 4 1 5 1 1
          2 1 1 1 1 2
          1 4 1 1 6 2
          1 6 1 6 4 2
          2 4 2 1 2 2
          4 2 1 2 2 1
          4 1 2 2 1 1
          1 1 1 2 2 1
          1 1 1 2 2 2
          2 1 2 2 1 1
          2 2 1 1 1 1
          1 1 1 2 2 2
          1 1 1 1 2 1
          1 1 1 1 2 2
          1 2 2 1 1 2
          2 1 2 2 2 1
          1 1 2 1 2 2
          2 2 2 1 1 1
          1 2 2 2 2 2
          1 1 2 1 6 1
          2 2 2 2 2 2
          2 1 2 1 1 1
          2 1 2 2 2 1
          1 6 1 2 6 2
          2 2 2 2 1 1
          1 2 1 1 1 1
          1 2 2 2 1 1
          2 1 2 2 2 1
          4 4 2 2 1 1
          1 2 1 2 2 1
          2 2 2 1 2 1
          2 1 1 2 2 2
          1 1 2 1 2 2
          2 2 1 2 1 1
          2 2 2 1 2 2
          1 2 2 4 1 6
          2 1 1 5 2 1
          2 1 1 2 5 4
          1 2 2 1 2 2
          2 2 1 1 1 1
          1 2 2 1 1 2
          1 2 1 3 2 5
          2 1 1 2 1 2
          1 1 1 2 1 1
          1 5 1 2 1 1
          2 1 1 4 5 2
          2 2 2 2 2 1
          1 1 2 1 3 1
          5 5 2 2 1 2
          1 1 1 2 1 1
          2 5 2 2 1 1
          5 2 2 1 1 1
          1 2 2 1 6 1
          1 2 2 2 2 1
          2 1 2 2 2 1
          1 1 2 1 1 2
          2 2 2 2 1 5
          1 1 2 2 2 2
          2 1 1 2 1 2
          4 2 1 2 1 1
          1 1 2 1 1 1
          2 2 2 3 2 2
          1 2 1 1 1 1
          1 1 1 2 2 3
          2 3 1 2 1 2
          2 1 1 3 2 1
          1 1 2 2 2 2
          2 1 2 2 6 1
          4 1 1 1 1 1
          2 2 1 1 2 2
          1 3 2 2 1 1
          1 1 1 2 1 1
          2 2 2 4 2 1
          2 2 1 2 2 2
          2 3 2 1 2 1
          6 2 1 1 5 1
          3 1 2 1 2 2
          1 2 1 2 1 1
          2 2 1 6 2 2
          2 2 1 2 5 2
          2 1 2 2 2 1
          2 2 1 1 1 1
          4 2 2 6 1 6
          2 6 2 6 2 1
          1 1 2 1 2 2
          2 2 2 1 1 1
          1 1 2 2 2 2
          2 1 1 1 2 2
          2 2 1 1 1 2
          1 2 2 1 1 2
          1 2 1 1 2 1
          1 2 2 2 1 1
          2 1 1 1 1 2
          2 1 1 2 2 2
          1 1 2 2 1 2
          2 2 1 5 5 2
          1 1 6 1 5 2
          2 2 6 2 2 2
          1 4 6 2 2 2
          2 1 1 6 2 1
          1 2 2 1 6 6
          1 1 6 2 1 2
          1 1 1 1 2 5
          2 2 1 2 2 2
          2 2 1 2 1 2
          1 2 2 2 1 2
          1 2 1 1 1 2
          2 2 1 3 1 2
          1 2 2 2 1 1
          2 2 1 1 1 2
          1 1 2 1 1 1
          2 2 2 1 6 1
          2 2 1 1 1 2
          1 2 1 2 1 2
          1 1 1 2 2 2
          1 2 1 1 1 4
          1 1 1 1 1 2
          1 5 1 2 2 1
          2 1 2 1 2 2
          2 2 1 1 2 1
          2 2 1 1 1 4
          2 1 1 2 4 1
          4 1 2 1 6 6
          1 5 1 1 2 1
          1 2 1 2 2 5
          1 2 2 2 2 1
          2 1 2 2 1 1
          2 2 1 2 2 2
          2 2 1 2 1 1
          1 2 6 1 1 1
          3 2 2 2 2 2
          1 2 1 2 1 1
          2 3 2 1 1 2
          1 2 1 1 1 1
          2 2 1 2 1 5
          2 2 1 2 1 5
          2 1 1 2 2 2
          1 1 1 1 2 1
          4 1 1 2 2 2
          2 2 2 1 1 2
          2 2 2 2 2 2
          1 1 2 1 2 2
          2 6 2 1 2 1
          2 1 1 1 1 2
          2 2 3 3 2 1
          1 6 2 1 2 2
          2 6 2 1 3 3
          3 1 3 1 3 2
          6 1 2 2 2 1
          6 2 1 1 1 4
          2 2 3 1 2 2
          1 1 2 3 2 1
          2 1 2 2 2 1
          2 2 2 2 1 2
          2 2 1 2 1 2
          2 2 2 1 2 2
          2 1 1 2 1 1
          2 2 1 1 1 2
          1 1 1 1 2 2
          2 2 1 1 1 1
          2 2 2 1 2 2
          1 2 1 2 2 2
          1 2 1 2 1 1
          1 2 1 2 1 2
          1 2 1 1 2 1
          1 1 2 1 1 2
          1 2 1 2 2 2
          2 1 1 2 2 1
          6 1 6 1 1 2
          1 1 1 5 2 2
          1 1 1 1 2 2
          1 1 1 2 2 2
          3 1 2 3 2 2
          2 3 2 1 2 1
          1 1 1 2 4 1
          1 2 1 2 1 2
          1 2 4 2 2 3
          2 1 3 1 3 2
          2 1 1 2 1 1
          2 1 2 1 1 2
          1 6 1 2 5 1
          2 1 2 2 1 5
          2 4 1 2 2 6
          2 2 2 2 1 2
          1 2 5 1 2 1
          2 2 2 1 1 3
          2 1 1 1 2 2
          4 2 1 2 2 2
          4 1 1 1 2 2
          2 1 2 1 5 1
          2 2 2 5 2 2
          1 2 2 2 2 1
          1 1 1 2 2 1
          2 6 2 1 2 1
          2 1 2 2 1 2
          1 1 2 1 1 2
          1 2 1 1 2 1
          1 1 1 2 1 1
          2 4 2 2 1 1
          1 1 1 1 2 2
          2 2 2 2 1 2
          2 1 3 1 1 1
          1 1 2 1 1 1
          1 2 1 3 2 1
          1 1 1 2 2 1
          2 1 2 2 2 1
          5 2 2 1 1 1
          5 1 2 2 2 1
          3 2 1 1 2 2
          2 2 1 2 2 1
          2 1 1 1 1 2
          1 1 1 1 2 1
          1 2 1 2 2 1
          2 1 1 1 1 1
          1 1 1 2 1 2
          1 2 1 1 3 1
          2 1 1 3 1 1
          1 1 2 1 1 1
          2 2 2 2 2 1
          4 1 2 1 1 2
          2 1 2 2 2 2
          1 1 1 2 2 2
          2 2 1 2 1 2
          1 1 1 1 1 2
          2 2 2 2 1 1
          2 2 1 1 1 2
          1 5 4 1 2 2
          2 1 1 2 2 2
          2 1 1 2 5 1
          2 5 1 2 1 1
          2 1 2 2 2 2
          2 2 4 1 1 1
          2 2 5 2 2 2
          2 1 2 2 1 1
          1 2 1 2 2 2
          2 1 2 5 2 1
          1 2 2 1 2 2
          1 2 2 2 1 2
          2 2 1 3 2 2
          2 1 2 2 1 1
        </DataArray>
      </CellData>
      <Points>
        <DataArray type="Float64" Name="Points" NumberOfComponents="3" format="ascii" RangeMin="0" RangeMax="1.4150971698">
          0.15789473684 0.15789473684 0 0.15789473684 0.15789473684 0.05
          0.73684210526 1 0 0.73684210526 1 0.05
          0.68421052632 0.1052631579 0 0.68421052632 0.1052631579 0.05
          0.52631578947 0.052631578947 0 0.52631578947 0.052631578947 0.05
          0.21052631579 0.36842105263 0 0.21052631579 0.36842105263 0.05
          0.42105263158 0.42105263158 0 0.42105263158 0.42105263158 0.05
          0.26315789474 0.15789473684 0 0.26315789474 0.15789473684 0.05
          0.1052631579 0.63157894737 0 0.1052631579 0.63157894737 0.05
          1 0.52631578947 0 1 0.52631578947 0.05
          0.36842105263 0.89473684211 0 0.36842105263 0.89473684211 0.05
          0.57894736842 1 0 0.57894736842 1 0.05
          0.26315789474 0.52631578947 0 0.26315789474 0.52631578947 0.05
          1 0.31578947368 0 1 0.31578947368 0.05
          1 0.26315789474 0 1 0.26315789474 0.05
          0.21052631579 1 0 0.21052631579 1 0.05
          0.15789473684 0.89473684211 0 0.15789473684 0.89473684211 0.05
          0.52631578947 0.21052631579 0 0.52631578947 0.21052631579 0.05
          0.84210526316 0.78947368421 0 0.84210526316 0.78947368421 0.05
          0.68421052632 0.52631578947 0 0.68421052632 0.52631578947 0.05
          0.47368421053 0.1052631579 0 0.47368421053 0.1052631579 0.05
          0.94736842105 0.89473684211 0 0.94736842105 0.89473684211 0.05
          0.68421052632 0.31578947368 0 0.68421052632 0.31578947368 0.05
          0.89473684211 0.63157894737 0 0.89473684211 0.63157894737 0.05
          0.052631578947 0.42105263158 0 0.052631578947 0.42105263158 0.05
          0.94736842105 0.68421052632 0 0.94736842105 0.68421052632 0.05
          1 0.47368421053 0 1 0.47368421053 0.05
          0.21052631579 0.73684210526 0 0.21052631579 0.73684210526 0.05
          0.94736842105 0.94736842105 0 0.94736842105 0.94736842105 0.05
          0.94736842105 0.47368421053 0 0.94736842105 0.47368421053 0.05
          0.57894736842 0.21052631579 0 0.57894736842 0.21052631579 0.05
          0.94736842105 0.1052631579 0 0.94736842105 0.1052631579 0.05
          0.15789473684 0.47368421053 0 0.15789473684 0.47368421053 0.05
          0.31578947368 0.47368421053 0 0.31578947368 0.47368421053 0.05
          0.78947368421 0.63157894737 0 0.78947368421 0.63157894737 0.05
          0.42105263158 0.15789473684 0 0.42105263158 0.15789473684 0.05
          0.26315789474 0.78947368421 0 0.26315789474 0.78947368421 0.05
          0.36842105263 0.31578947368 0 0.36842105263 0.31578947368 0.05
          0.21052631579 0.31578947368 0 0.21052631579 0.31578947368 0.05
          0.31578947368 0.21052631579 0 0.31578947368 0.21052631579 0.05
          0.57894736842 0.1052631579 0 0.57894736842 0.1052631579 0.05
          0.15789473684 0.84210526316 0 0.15789473684 0.84210526316 0.05
          0.68421052632 0.15789473684 0 0.68421052632 0.15789473684 0.05
          0.68421052632 0.26315789474 0 0.68421052632 0.26315789474 0.05
          0.84210526316 0.73684210526 0 0.84210526316 0.73684210526 0.05
          0.89473684211 0.68421052632 0 0.89473684211 0.68421052632 0.05
          0.57894736842 0.68421052632 0 0.57894736842 0.68421052632 0.05
          0.73684210526 0.52631578947 0 0.73684210526 0.52631578947 0.05
          0.89473684211 0.52631578947 0 0.89473684211 0.52631578947 0.05
          0.36842105263 0.94736842105 0 0.36842105263 0.94736842105 0.05
          0 0 0.05 0 0 0
          1 0 0.05 1 0 0
          0 1 0.05 0 1 0
          1 1 0.05 1 1 0
          0.89473684211 0.21052631579 0.05 0.89473684211 0.21052631579 0
          0.26315789474 0.57894736842 0.05 0.26315789474 0.57894736842 0
          0.15789473684 0.36842105263 0.05 0.15789473684 0.36842105263 0
          0.47368421053 0.15789473684 0.05 0.47368421053 0.15789473684 0
          0 0.26315789474 0.05 0 0.26315789474 0
          0.1052631579 0 0.05 0.1052631579 0 0
          0.1052631579 0.52631578947 0.05 0.1052631579 0.52631578947 0
          0.52631578947 0.94736842105 0.05 0.52631578947 0.94736842105 0
          0 0.52631578947 0.05 0 0.52631578947 0
          0.21052631579 0.84210526316 0.05 0.21052631579 0.84210526316 0
          0.052631578947 0.052631578947 0.05 0.052631578947 0.052631578947 0
          0.052631578947 0.1052631579 0.05 0.052631578947 0.1052631579 0
          0 0.68421052632 0.05 0 0.68421052632 0
          0 0.73684210526 0.05 0 0.73684210526 0
          0.84210526316 1 0.05 0.84210526316 1 0
          0.31578947368 0.94736842105 0.05 0.31578947368 0.94736842105 0
          0 0.89473684211 0.05 0 0.89473684211 0
          0.89473684211 0.42105263158 0.05 0.89473684211 0.42105263158 0
          0.15789473684 0.1052631579 0.05 0.15789473684 0.1052631579 0
          0.84210526316 0.47368421053 0.05 0.84210526316 0.47368421053 0
          0.42105263158 0.052631578947 0.05 0.42105263158 0.052631578947 0
          0.94736842105 0.63157894737 0.05 0.94736842105 0.63157894737 0
          0.052631578947 0.21052631579 0.05 0.052631578947 0.21052631579 0
          0.21052631579 0.42105263158 0.05 0.21052631579 0.42105263158 0
          0.31578947368 0.36842105263 0.05 0.31578947368 0.36842105263 0
          0.052631578947 0.36842105263 0.05 0.052631578947 0.36842105263 0
          0.1052631579 0.15789473684 0.05 0.1052631579 0.15789473684 0
          0.52631578947 0.47368421053 0.05 0.52631578947 0.47368421053 0
          1 0.63157894737 0.05 1 0.63157894737 0
          0.1052631579 0.47368421053 0.05 0.1052631579 0.47368421053 0
          0.052631578947 0.63157894737 0.05 0.052631578947 0.63157894737 0
          0.31578947368 0.52631578947 0.05 0.31578947368 0.52631578947 0
          0.47368421053 1 0.05 0.47368421053 1 0
          0.052631578947 1 0.05 0.052631578947 1 0
          0 0.42105263158 0.05 0 0.42105263158 0
          0.89473684211 0.57894736842 0.05 0.89473684211 0.57894736842 0
          0.84210526316 0.89473684211 0.05 0.84210526316 0.89473684211 0
          0.21052631579 0.94736842105 0.05 0.21052631579 0.94736842105 0
          0.36842105263 0.1052631579 0.05 0.36842105263 0.1052631579 0
          0.31578947368 0.84210526316 0.05 0.31578947368 0.84210526316 0
          0.1052631579 0.1052631579 0.05 0.1052631579 0.1052631579 0
          1 0.15789473684 0.05 1 0.15789473684 0
          0.63157894737 0.84210526316 0.05 0.63157894737 0.84210526316 0
          0.57894736842 0.94736842105 0.05 0.57894736842 0.94736842105 0
          0.52631578947 0.15789473684 0.05 0.52631578947 0.15789473684 0
          0.21052631579 0.89473684211 0.05 0.21052631579 0.89473684211 0
          0.63157894737 0 0.05 0.63157894737 0 0
          0.15789473684 0.42105263158 0.05 0.15789473684 0.42105263158 0
          0.52631578947 0.84210526316 0.05 0.52631578947 0.84210526316 0
          0.68421052632 0.47368421053 0.05 0.68421052632 0.47368421053 0
          0.42105263158 0.68421052632 0.05 0.42105263158 0.68421052632 0
          0.89473684211 0.84210526316 0.05 0.89473684211 0.84210526316 0
          0.78947368421 0.73684210526 0.05 0.78947368421 0.73684210526 0
          0 0.63157894737 0.05 0 0.63157894737 0
          0.1052631579 0.84210526316 0.05 0.1052631579 0.84210526316 0
          0 0.94736842105 0.05 0 0.94736842105 0
          0.42105263158 0.1052631579 0.05 0.42105263158 0.1052631579 0
          0.1052631579 1 0.05 0.1052631579 1 0
          0.15789473684 0 0.05 0.15789473684 0 0
          0.63157894737 0.63157894737 0.05 0.63157894737 0.63157894737 0
          0.52631578947 0.68421052632 0.05 0.52631578947 0.68421052632 0
          0.78947368421 0 0.05 0.78947368421 0 0
          0.1052631579 0.94736842105 0.05 0.1052631579 0.94736842105 0
          0.36842105263 1 0.05 0.36842105263 1 0
          0 0.36842105263 0.05 0 0.36842105263 0
          0.52631578947 0.89473684211 0.05 0.52631578947 0.89473684211 0
          0.052631578947 0.94736842105 0.05 0.052631578947 0.94736842105 0
          0.78947368421 0.68421052632 0.05 0.78947368421 0.68421052632 0
          0.26315789474 1 0.05 0.26315789474 1 0
          0.47368421053 0.31578947368 0.05 0.47368421053 0.31578947368 0
          0.78947368421 0.42105263158 0.05 0.78947368421 0.42105263158 0
          0.21052631579 0.78947368421 0.05 0.21052631579 0.78947368421 0
          0.1052631579 0.42105263158 0.05 0.1052631579 0.42105263158 0
          0.94736842105 0.42105263158 0.05 0.94736842105 0.42105263158 0
          0.68421052632 0.73684210526 0.05 0.68421052632 0.73684210526 0
          0.31578947368 0.89473684211 0.05 0.31578947368 0.89473684211 0
          0.84210526316 0.94736842105 0.05 0.84210526316 0.94736842105 0
          0.15789473684 1 0.05 0.15789473684 1 0
          0.26315789474 0.73684210526 0.05 0.26315789474 0.73684210526 0
          0.78947368421 0.94736842105 0.05 0.78947368421 0.94736842105 0
          0.78947368421 0.1052631579 0.05 0.78947368421 0.1052631579 0
          0.84210526316 0.52631578947 0.05 0.84210526316 0.52631578947 0
          0.1052631579 0.052631578947 0.05 0.1052631579 0.052631578947 0
          0.36842105263 0.15789473684 0.05 0.36842105263 0.15789473684 0
          0.26315789474 0.47368421053 0.05 0.26315789474 0.47368421053 0
          0.26315789474 0.63157894737 0.05 0.26315789474 0.63157894737 0
          0.89473684211 0.15789473684 0.05 0.89473684211 0.15789473684 0
          0.78947368421 1 0.05 0.78947368421 1 0
          0.68421052632 0.052631578947 0.05 0.68421052632 0.052631578947 0
          0.68421052632 0 0.05 0.68421052632 0 0
          0.42105263158 0.89473684211 0.05 0.42105263158 0.89473684211 0
          0.84210526316 0.31578947368 0.05 0.84210526316 0.31578947368 0
          0.47368421053 0.84210526316 0.05 0.47368421053 0.84210526316 0
          0 0.31578947368 0.05 0 0.31578947368 0
          0.21052631579 0.1052631579 0.05 0.21052631579 0.1052631579 0
          0.63157894737 0.52631578947 0.05 0.63157894737 0.52631578947 0
          0.26315789474 0.31578947368 0.05 0.26315789474 0.31578947368 0
          0.94736842105 1 0.05 0.94736842105 1 0
          0.052631578947 0.15789473684 0.05 0.052631578947 0.15789473684 0
          0.47368421053 0.78947368421 0.05 0.47368421053 0.78947368421 0
          0.26315789474 0.1052631579 0.05 0.26315789474 0.1052631579 0
          0.26315789474 0 0.05 0.26315789474 0 0
          0.052631578947 0.68421052632 0.05 0.052631578947 0.68421052632 0
          0.94736842105 0.73684210526 0.05 0.94736842105 0.73684210526 0
          0.68421052632 0.42105263158 0.05 0.68421052632 0.42105263158 0
          0.26315789474 0.36842105263 0.05 0.26315789474 0.36842105263 0
          0.31578947368 0.57894736842 0.05 0.31578947368 0.57894736842 0
          0.52631578947 0.42105263158 0.05 0.52631578947 0.42105263158 0
          0.42105263158 0.94736842105 0.05 0.42105263158 0.94736842105 0
          0.63157894737 0.1052631579 0.05 0.63157894737 0.1052631579 0
          0.52631578947 0.78947368421 0.05 0.52631578947 0.78947368421 0
          0 0.15789473684 0.05 0 0.15789473684 0
          0.26315789474 0.26315789474 0.05 0.26315789474 0.26315789474 0
          0.68421052632 0.63157894737 0.05 0.68421052632 0.63157894737 0
          0.21052631579 0.68421052632 0.05 0.21052631579 0.68421052632 0
          0.68421052632 0.94736842105 0.05 0.68421052632 0.94736842105 0
          0.84210526316 0.36842105263 0.05 0.84210526316 0.36842105263 0
          0.36842105263 0.42105263158 0.05 0.36842105263 0.42105263158 0
          0.31578947368 0 0.05 0.31578947368 0 0
          0.1052631579 0.68421052632 0.05 0.1052631579 0.68421052632 0
          0.31578947368 0.1052631579 0.05 0.31578947368 0.1052631579 0
          0.36842105263 0 0.05 0.36842105263 0 0
          0.84210526316 0.68421052632 0.05 0.84210526316 0.68421052632 0
          0.57894736842 0 0.05 0.57894736842 0 0
          0.89473684211 0.94736842105 0.05 0.89473684211 0.94736842105 0
          0.78947368421 0.15789473684 0.05 0.78947368421 0.15789473684 0
          0.57894736842 0.26315789474 0.05 0.57894736842 0.26315789474 0
          0.73684210526 0.78947368421 0.05 0.73684210526 0.78947368421 0
          0 0.21052631579 0.05 0 0.21052631579 0
          0.47368421053 0.63157894737 0.05 0.47368421053 0.63157894737 0
          0.94736842105 0.052631578947 0.05 0.94736842105 0.052631578947 0
          0.89473684211 0 0.05 0.89473684211 0 0
          0.42105263158 0.78947368421 0.05 0.42105263158 0.78947368421 0
          0.63157894737 0.78947368421 0.05 0.63157894737 0.78947368421 0
          0.36842105263 0.21052631579 0.05 0.36842105263 0.21052631579 0
          0.52631578947 0.36842105263 0.05 0.52631578947 0.36842105263 0
          0.84210526316 0 0.05 0.84210526316 0 0
          0.31578947368 1 0.05 0.31578947368 1 0
          0.89473684211 0.73684210526 0.05 0.89473684211 0.73684210526 0
          0.36842105263 0.68421052632 0.05 0.36842105263 0.68421052632 0
          0.73684210526 0.36842105263 0.05 0.73684210526 0.36842105263 0
          0.21052631579 0.26315789474 0.05 0.21052631579 0.26315789474 0
          0.052631578947 0.57894736842 0.05 0.052631578947 0.57894736842 0
          0.36842105263 0.26315789474 0.05 0.36842105263 0.26315789474 0
          0.94736842105 0.31578947368 0.05 0.94736842105 0.31578947368 0
          0.94736842105 0.84210526316 0.05 0.94736842105 0.84210526316 0
          0.73684210526 0 0.05 0.73684210526 0 0
          1 0.36842105263 0.05 1 0.36842105263 0
          0.52631578947 0.1052631579 0.05 0.52631578947 0.1052631579 0
          1 0.57894736842 0.05 1 0.57894736842 0
          0.42105263158 1 0.05 0.42105263158 1 0
          0.15789473684 0.73684210526 0.05 0.15789473684 0.73684210526 0
          0.94736842105 0.36842105263 0.05 0.94736842105 0.36842105263 0
          0.89473684211 1 0.05 0.89473684211 1 0
          0.36842105263 0.84210526316 0.05 0.36842105263 0.84210526316 0
          0.26315789474 0.052631578947 0.05 0.26315789474 0.052631578947 0
          0.052631578947 0.52631578947 0.05 0.052631578947 0.52631578947 0
          0.89473684211 0.26315789474 0.05 0.89473684211 0.26315789474 0
          1 0.1052631579 0.05 1 0.1052631579 0
          0.42105263158 0.73684210526 0.05 0.42105263158 0.73684210526 0
          0.94736842105 0.78947368421 0.05 0.94736842105 0.78947368421 0
          0.63157894737 0.94736842105 0.05 0.63157894737 0.94736842105 0
          0.73684210526 0.94736842105 0.05 0.73684210526 0.94736842105 0
          0.36842105263 0.47368421053 0.05 0.36842105263 0.47368421053 0
          0.47368421053 0.68421052632 0.05 0.47368421053 0.68421052632 0
          0.68421052632 0.68421052632 0.05 0.68421052632 0.68421052632 0
          0.47368421053 0.42105263158 0.05 0.47368421053 0.42105263158 0
          0.57894736842 0.63157894737 0.05 0.57894736842 0.63157894737 0
          0.26315789474 0.21052631579 0.05 0.26315789474 0.21052631579 0
          1 0.42105263158 0.05 1 0.42105263158 0
          0.94736842105 0.57894736842 0.05 0.94736842105 0.57894736842 0
          0.63157894737 0.42105263158 0.05 0.63157894737 0.42105263158 0
          0.84210526316 0.63157894737 0.05 0.84210526316 0.63157894737 0
          0.31578947368 0.73684210526 0.05 0.31578947368 0.73684210526 0
          0.42105263158 0.84210526316 0.05 0.42105263158 0.84210526316 0
          0.36842105263 0.52631578947 0.05 0.36842105263 0.52631578947 0
          0.52631578947 0.26315789474 0.05 0.52631578947 0.26315789474 0
          0.31578947368 0.052631578947 0.05 0.31578947368 0.052631578947 0
          0.052631578947 0.31578947368 0.05 0.052631578947 0.31578947368 0
          0.42105263158 0.63157894737 0.05 0.42105263158 0.63157894737 0
          1 0.21052631579 0.05 1 0.21052631579 0
          0.63157894737 0.21052631579 0.05 0.63157894737 0.21052631579 0
          0.15789473684 0.52631578947 0.05 0.15789473684 0.52631578947 0
          0.47368421053 0.26315789474 0.05 0.47368421053 0.26315789474 0
          0.84210526316 0.15789473684 0.05 0.84210526316 0.15789473684 0
          0.73684210526 0.73684210526 0.05 0.73684210526 0.73684210526 0
          0.052631578947 0.26315789474 0.05 0.052631578947 0.26315789474 0
          0.42105263158 0.47368421053 0.05 0.42105263158 0.47368421053 0
          0.57894736842 0.36842105263 0.05 0.57894736842 0.36842105263 0
          0.47368421053 0.57894736842 0.05 0.47368421053 0.57894736842 0
          0.63157894737 0.57894736842 0.05 0.63157894737 0.57894736842 0
          0.78947368421 0.21052631579 0.05 0.78947368421 0.21052631579 0
          0.47368421053 0.73684210526 0.05 0.47368421053 0.73684210526 0
          0.1052631579 0.36842105263 0.05 0.1052631579 0.36842105263 0
          0.26315789474 0.94736842105 0.05 0.26315789474 0.94736842105 0
          1 0.052631578947 0.05 1 0.052631578947 0
          0.47368421053 0.94736842105 0.05 0.47368421053 0.94736842105 0
          0.78947368421 0.57894736842 0.05 0.78947368421 0.57894736842 0
          0.36842105263 0.052631578947 0.05 0.36842105263 0.052631578947 0
          0.63157894737 0.73684210526 0.05 0.63157894737 0.73684210526 0
          0.94736842105 0.26315789474 0.05 0.94736842105 0.26315789474 0
          0.89473684211 0.1052631579 0.05 0.89473684211 0.1052631579 0
          0.42105263158 0.57894736842 0.05 0.42105263158 0.57894736842 0
          1 0.73684210526 0.05 1 0.73684210526 0
          0.42105263158 0.26315789474 0.05 0.42105263158 0.26315789474 0
          0.42105263158 0 0.05 0.42105263158 0 0
          0.63157894737 0.89473684211 0.05 0.63157894737 0.89473684211 0
          0.052631578947 0.47368421053 0.05 0.052631578947 0.47368421053 0
          0.52631578947 0.52631578947 0.05 0.52631578947 0.52631578947 0
          0.73684210526 0.63157894737 0.05 0.73684210526 0.63157894737 0
          0.26315789474 0.84210526316 0.05 0.26315789474 0.84210526316 0
          0.052631578947 0.78947368421 0.05 0.052631578947 0.78947368421 0
          0.73684210526 0.15789473684 0.05 0.73684210526 0.15789473684 0
          0.47368421053 0 0.05 0.47368421053 0 0
          0.36842105263 0.78947368421 0.05 0.36842105263 0.78947368421 0
          0.63157894737 0.26315789474 0.05 0.63157894737 0.26315789474 0
          0.52631578947 0.31578947368 0.05 0.52631578947 0.31578947368 0
          0.21052631579 0.52631578947 0.05 0.21052631579 0.52631578947 0
          0.31578947368 0.26315789474 0.05 0.31578947368 0.26315789474 0
          0.78947368421 0.47368421053 0.05 0.78947368421 0.47368421053 0
          0.78947368421 0.36842105263 0.05 0.78947368421 0.36842105263 0
          0.94736842105 0.15789473684 0.05 0.94736842105 0.15789473684 0
          0.52631578947 0.73684210526 0.05 0.52631578947 0.73684210526 0
          0.47368421053 0.89473684211 0.05 0.47368421053 0.89473684211 0
          0.57894736842 0.31578947368 0.05 0.57894736842 0.31578947368 0
          0.42105263158 0.21052631579 0.05 0.42105263158 0.21052631579 0
          0.57894736842 0.42105263158 0.05 0.57894736842 0.42105263158 0
          1 0.68421052632 0.05 1 0.68421052632 0
          0.15789473684 0.68421052632 0.05 0.15789473684 0.68421052632 0
          0.78947368421 0.78947368421 0.05 0.78947368421 0.78947368421 0
          0.052631578947 0.89473684211 0.05 0.052631578947 0.89473684211 0
          0.31578947368 0.42105263158 0.05 0.31578947368 0.42105263158 0
          0.21052631579 0.21052631579 0.05 0.21052631579 0.21052631579 0
          0.31578947368 0.31578947368 0.05 0.31578947368 0.31578947368 0
          0.57894736842 0.84210526316 0.05 0.57894736842 0.84210526316 0
          0.57894736842 0.89473684211 0.05 0.57894736842 0.89473684211 0
          0.31578947368 0.78947368421 0.05 0.31578947368 0.78947368421 0
          0.15789473684 0.052631578947 0.05 0.15789473684 0.052631578947 0
          0.42105263158 0.31578947368 0.05 0.42105263158 0.31578947368 0
          1 0.84210526316 0.05 1 0.84210526316 0
          0.89473684211 0.052631578947 0.05 0.89473684211 0.052631578947 0
          0.63157894737 0.15789473684 0.05 0.63157894737 0.15789473684 0
          0.57894736842 0.052631578947 0.05 0.57894736842 0.052631578947 0
          0.42105263158 0.52631578947 0.05 0.42105263158 0.52631578947 0
          0 0.052631578947 0.05 0 0.052631578947 0
          0.63157894737 0.36842105263 0.05 0.63157894737 0.36842105263 0
          0.57894736842 0.73684210526 0.05 0.57894736842 0.73684210526 0
          0.15789473684 0.57894736842 0.05 0.15789473684 0.57894736842 0
          0.52631578947 0 0.05 0.52631578947 0 0
          0.52631578947 1 0.05 0.52631578947 1 0
          1 0.94736842105 0.05 1 0.94736842105 0
          0.1052631579 0.57894736842 0.05 0.1052631579 0.57894736842 0
          0.63157894737 0.47368421053 0.05 0.63157894737 0.47368421053 0
          0.68421052632 0.21052631579 0.05 0.68421052632 0.21052631579 0
          0.63157894737 0.31578947368 0.05 0.63157894737 0.31578947368 0
          0.1052631579 0.26315789474 0.05 0.1052631579 0.26315789474 0
          0.57894736842 0.78947368421 0.05 0.57894736842 0.78947368421 0
          0.15789473684 0.63157894737 0.05 0.15789473684 0.63157894737 0
          0.26315789474 0.42105263158 0.05 0.26315789474 0.42105263158 0
          0.57894736842 0.52631578947 0.05 0.57894736842 0.52631578947 0
          0.36842105263 0.63157894737 0.05 0.36842105263 0.63157894737 0
          0.52631578947 0.63157894737 0.05 0.52631578947 0.63157894737 0
          0 0.47368421053 0.05 0 0.47368421053 0
          0.89473684211 0.78947368421 0.05 0.89473684211 0.78947368421 0
          0.052631578947 0.73684210526 0.05 0.052631578947 0.73684210526 0
          0.15789473684 0.94736842105 0.05 0.15789473684 0.94736842105 0
          0.94736842105 0.52631578947 0.05 0.94736842105 0.52631578947 0
          0.21052631579 0.47368421053 0.05 0.21052631579 0.47368421053 0
          0.73684210526 0.89473684211 0.05 0.73684210526 0.89473684211 0
          0.78947368421 0.31578947368 0.05 0.78947368421 0.31578947368 0
          0.15789473684 0.78947368421 0.05 0.15789473684 0.78947368421 0
          0.47368421053 0.52631578947 0.05 0.47368421053 0.52631578947 0
          0.21052631579 0.052631578947 0.05 0.21052631579 0.052631578947 0
          0.68421052632 0.78947368421 0.05 0.68421052632 0.78947368421 0
          0 0.1052631579 0.05 0 0.1052631579 0
          0.68421052632 0.89473684211 0.05 0.68421052632 0.89473684211 0
          0 0.84210526316 0.05 0 0.84210526316 0
          0.68421052632 1 0.05 0.68421052632 1 0
          0.68421052632 0.84210526316 0.05 0.68421052632 0.84210526316 0
          0.78947368421 0.052631578947 0.05 0.78947368421 0.052631578947 0
          0.36842105263 0.73684210526 0.05 0.36842105263 0.73684210526 0
          0.47368421053 0.36842105263 0.05 0.47368421053 0.36842105263 0
          0.73684210526 0.57894736842 0.05 0.73684210526 0.57894736842 0
          0.73684210526 0.26315789474 0.05 0.73684210526 0.26315789474 0
          0.73684210526 0.31578947368 0.05 0.73684210526 0.31578947368 0
          0.47368421053 0.47368421053 0.05 0.47368421053 0.47368421053 0
          0.73684210526 0.42105263158 0.05 0.73684210526 0.42105263158 0
          0.73684210526 0.47368421053 0.05 0.73684210526 0.47368421053 0
          0.1052631579 0.31578947368 0.05 0.1052631579 0.31578947368 0
          0.73684210526 0.21052631579 0.05 0.73684210526 0.21052631579 0
          0.89473684211 0.89473684211 0.05 0.89473684211 0.89473684211 0
          0.73684210526 0.68421052632 0.05 0.73684210526 0.68421052632 0
          0.47368421053 0.052631578947 0.05 0.47368421053 0.052631578947 0
          0 0.57894736842 0.05 0 0.57894736842 0
          0.73684210526 0.84210526316 0.05 0.73684210526 0.84210526316 0